19
Iteration:  2448
 C         1.433259         0.229391        -0.041722
 C         0.025261         0.075276         0.156766
 C        -1.189317        -0.155610         0.024351
 C        -2.652179        -0.084824         0.032206
 O        -3.231372        -0.395907         1.289784
 C        -3.181448         1.305220        -0.486671
 C        -4.562365         1.678654        -0.399438
 C        -5.447600         1.176622        -1.459123
 O        -4.961875         2.550193        -1.520007
 H         1.851176        -0.751309        -0.470661
 H         1.855736         0.959916        -0.770498
 H         1.969404         0.316419         0.953778
 H        -3.108360        -0.833987        -0.688347
 H        -2.686735         0.080514         1.914046
 H        -2.622061         1.937255         0.166180
 H        -2.813534         1.455458        -1.464891
 H        -4.959215         1.791794         0.642354
 H        -5.046418         0.483257        -2.202920
 H        -6.452672         0.982745        -1.058769
