19
Iteration:  4366charge 0 multiplicity 1
 C         1.152245         0.304311        -0.364481
 C        -0.214884         0.325929         0.007170
 C        -1.289783         0.040106         0.457615
 C        -2.655162         0.135689         0.922100
 O        -3.471223        -0.498512        -0.095160
 C        -3.154900         1.551307         1.252705
 C        -4.702689         1.514373         1.475281
 C        -5.349789         0.285367         2.061845
 O        -4.716994        -0.487124         2.791093
 H         1.809886         0.377921         0.537717
 H         1.472013        -0.595206        -0.812257
 H         1.359365         1.164549        -1.066176
 H        -2.849616        -0.461096         1.786574
 H        -2.815769        -1.154678        -0.366519
 H        -2.690175         1.789099         2.219418
 H        -2.871814         2.324094         0.542301
 H        -5.071301         2.296639         2.193544
 H        -5.314293         1.715145         0.557690
 H        -6.440007         0.104693         1.703591
