19
Iteration:  2377charge 0 multiplicity 1
 C         0.990069         0.448796         0.698398
 C        -0.323061         0.221462         0.053513
 C        -1.505506         0.068090        -0.269110
 C        -2.980649        -0.061884        -0.094471
 O        -3.670412         1.088476        -0.386844
 C        -3.218805        -0.832977         1.284142
 C        -4.781485        -0.638338         1.845058
 C        -4.857209         0.885888         2.193783
 O        -4.133175         1.492123         2.969995
 H         1.608464         1.285982         0.352300
 H         1.048189         0.285057         1.749437
 H         1.637675        -0.390058         0.510266
 H        -3.273425        -0.684932        -0.975207
 H        -3.208003         1.839059        -0.027815
 H        -3.331208        -1.888781         1.384133
 H        -2.535100        -0.550268         2.093038
 H        -5.488791        -0.663867         1.022903
 H        -4.929195        -1.291980         2.722934
 H        -5.544244         1.464173         1.456729
