19
Iteration:  2786
 C         0.329079         0.128281         0.397027
 C         1.231305        -0.302592        -0.645527
 O         2.292375        -1.161418        -0.331803
 C         2.564741         0.127039        -0.884148
 C         2.482839        -0.190136        -2.392349
 C         2.961651        -1.519383        -3.013423
 O         1.769512        -2.376788        -2.900216
 C         0.620825        -1.558108        -2.978268
 C         0.982050        -0.367466        -2.156065
 H        -0.111368         1.026052         0.043118
 H        -0.349821        -0.588445         0.757866
 H         0.899838         0.390221         1.342564
 H         3.176942         0.977080        -0.446507
 H         2.712894         0.475542        -3.281707
 H         3.246441        -1.394595        -4.096263
 H         3.753529        -2.222712        -2.579463
 H         0.340091        -1.378772        -4.113317
 H        -0.177096        -2.076406        -2.530841
 H         0.400724         0.461358        -2.525075
