19
Iteration:  4677
 C         0.186497         0.282809         0.236954
 C         1.222578        -0.255145        -0.614951
 O         1.778448        -1.458241        -0.207391
 C         2.704916        -0.457930        -0.671573
 C         2.809346        -0.362236        -2.196274
 C         3.022631        -1.653418        -3.017856
 O         1.714318        -2.123158        -3.365514
 C         0.683869        -1.202265        -2.967531
 C         1.248021        -0.027356        -2.104967
 H         0.232289         0.167585         1.369245
 H         0.032534         1.282768         0.015775
 H        -0.752727        -0.237371        -0.053664
 H         3.370750         0.070322         0.146378
 H         3.636781         0.375524        -2.316643
 H         3.475187        -1.204392        -3.921079
 H         3.607073        -2.423628        -2.441668
 H         0.259336        -0.875215        -3.907361
 H        -0.080038        -1.778409        -2.476928
 H         0.739614         0.896474        -2.443055
