19
Iteration:  4546
 C         0.071904         0.387262         0.335179
 C         1.519182         0.026814        -0.031003
 C         2.044143        -1.067621         0.985759
 O         3.428850        -1.607002         0.906197
 C         4.359278        -0.590555         1.385585
 C         4.731722         0.502376         0.506815
 C         3.968933         1.183581        -0.408062
 C         2.466102         1.056438        -0.646841
 O         1.750344        -0.067024        -1.420162
 H        -0.603128        -0.509001        -0.001738
 H        -0.183692         0.540370         1.400656
 H        -0.086314         1.314721        -0.360924
 H         1.929925        -0.549453         2.013955
 H         1.353998        -1.862643         0.858088
 H         4.177089        -0.294139         2.376969
 H         5.338763        -1.219898         1.605583
 H         5.756270         0.982016         0.711091
 H         4.529040         1.939344        -1.008282
 H         1.929420         1.934785        -0.870475
