19
Iteration:  4663charge 0 multiplicity 1
 C         2.462460        -1.730014        -3.924640
 C         2.353694        -0.467390        -3.146668
 C         2.261561         0.957944        -3.950225
 C         1.222807         0.392863        -3.033260
 O         1.067470         0.892078        -1.744564
 C         2.335472         0.798294        -1.036307
 C         3.165788        -0.344154        -1.849733
 C         2.069113         0.383669         0.459735
 O         2.773565         0.497181         1.550723
 H         3.421803        -1.953110        -4.377676
 H         2.289119        -2.606626        -3.194481
 H         1.785379        -1.891829        -4.757492
 H         2.869168         1.889117        -3.771533
 H         2.194412         0.658149        -5.038986
 H         0.135902         0.189936        -3.290262
 H         2.740825         1.857617        -1.045659
 H         4.251235        -0.073152        -2.020542
 H         3.022659        -1.347166        -1.410519
 H         1.009373        -0.098844         0.452666
