19
Iteration:  2665
 O         0.347498         0.143701         4.563673
 C         0.243295        -0.435580         3.213656
 C         0.000601        -1.982489         2.967733
 C        -0.991961        -0.860206         2.513697
 C        -0.830762        -0.422382         1.091843
 C         0.562861         0.241998         0.876239
 C         0.773518         1.180794        -0.238082
 O         1.298308        -0.157178        -0.268466
 C         1.109131         0.311716         2.288448
 H         0.584661        -0.531640         5.178476
 H         0.613546        -2.483370         2.224004
 H        -0.210865        -2.732123         3.812471
 H        -2.069507        -0.970494         2.830296
 H        -1.008455        -1.313732         0.483847
 H        -1.606090         0.224902         0.950975
 H        -0.039412         1.516395        -0.916767
 H         1.501282         2.124683        -0.035883
 H         2.149415         0.078051         2.329450
 H         0.865067         1.333459         2.572923
