19
Iteration:  4114
 C         0.140523        -0.658573        -0.297778
 C         1.105170         0.559896        -0.533187
 C         0.490931         1.501027        -1.677889
 C         1.317391         1.931583        -2.866197
 O         2.054431         3.176028        -2.773820
 C         2.838033         1.991046        -2.685919
 C         3.393099         1.245489        -1.396411
 C         2.547264         0.448017        -0.515032
 O         1.784787         1.187626         0.572843
 H         0.011983        -1.053968        -1.336858
 H         0.462202        -1.419426         0.340350
 H        -0.827633        -0.344580        -0.033615
 H        -0.440998         0.923127        -1.979654
 H         0.130840         2.383069        -1.274987
 H         0.801992         1.796141        -3.858074
 H         3.440621         1.690247        -3.553200
 H         4.129317         0.568272        -1.810304
 H         4.029885         2.038152        -0.984850
 H         2.881972        -0.470034        -0.011801
