19
Iteration:   897
 O         0.505426         0.827186         0.207732
 C        -0.792838         0.909112         0.619324
 C        -1.192845         0.928124         2.173658
 C        -2.504121         1.256116         1.310960
 O        -3.762059         1.602385         1.736218
 C        -2.140003         0.165466         0.148557
 C        -2.705007         0.842851        -1.131002
 C        -2.252139         2.270060        -0.980792
 C        -1.694045         2.199016         0.426688
 H         0.940760        -0.017348         0.384007
 H        -1.235634        -0.074614         2.775481
 H        -0.712041         1.762237         2.812153
 H        -4.135178         0.959697         2.493727
 H        -2.366625        -0.868560         0.215898
 H        -2.395803         0.348166        -2.056417
 H        -3.735504         0.716113        -1.146048
 H        -1.608155         2.512460        -1.851125
 H        -3.080595         2.973265        -1.152555
 H        -1.189238         3.148613         0.917618
