19
Iteration:  2221
 C         0.863590         2.792489        -1.758396
 C         2.012031         2.020083        -1.212085
 C         3.042037         1.500913        -2.296776
 C         3.114483         0.218084        -1.485106
 O         3.787563        -0.995692        -1.634372
 C         1.764529         0.423792        -0.845697
 C         2.981795         0.703741         0.024648
 O         3.544159        -0.035556         1.062474
 C         2.794577         2.231938         0.070840
 H         0.265357         3.178900        -0.939700
 H         1.343043         3.583990        -2.337694
 H         0.293042         2.183633        -2.540565
 H         2.525773         1.468401        -3.268868
 H         4.080899         1.930839        -2.456498
 H         4.059670        -1.434447        -0.814170
 H         0.765131         0.008113        -0.513651
 H         2.757798        -0.293440         1.617372
 H         2.202141         2.348114         1.047975
 H         3.767924         2.763250        -0.002600
