19
Iteration:   238
 C         4.469213        -0.346277         1.864129
 C         3.303275        -0.242358         0.900212
 C         2.197265        -1.259401         0.664148
 C         1.424766        -0.021994         0.101950
 C        -0.075527        -0.091636        -0.035709
 O         2.089370         0.109751        -1.296201
 C         3.219846         0.644115        -0.481418
 C         2.465111         0.922231         0.733877
 O         2.488156         2.153202         1.458102
 H         5.235452        -1.077134         1.600287
 H         5.022127         0.677619         2.019433
 H         4.132584        -0.600390         2.900416
 H         2.254879        -2.090250        -0.001290
 H         1.770008        -1.642278         1.615951
 H        -0.593216        -0.528356         0.829237
 H        -0.502054         0.885746        -0.342463
 H        -0.226903        -0.732692        -0.927413
 H         4.042463         0.956036        -1.094556
 H         2.438944         1.958075         2.321988
