19
Iteration:  4543
 C         4.394610         0.784454         2.679613
 C         3.324244         0.669089         1.522758
 C         1.857981         0.430306         1.978680
 C         1.250482         0.317679         0.500179
 C        -0.209387         0.376836        -0.008439
 O         1.832588         1.477734        -0.174593
 C         3.156037         1.334985         0.125429
 C         3.393343        -0.254177         0.311516
 O         2.127035        -0.826932        -0.063011
 H         3.810776         1.392528         3.340132
 H         4.626966        -0.187283         3.102381
 H         5.258508         1.433589         2.575779
 H         1.980093        -0.617759         2.415536
 H         1.245815         1.261622         2.455837
 H         0.031879         0.720498        -1.025470
 H        -0.738946        -0.628802        -0.164410
 H        -0.765340         1.059038         0.722928
 H         3.919369         2.065388        -0.300669
 H         4.186316        -0.855074        -0.070960
