19
Iteration:  2307charge 0 multiplicity 1
 C         4.514729        -1.047794        -1.487080
 C         3.512777        -0.470830        -0.566444
 O         2.374086        -0.144009        -1.281757
 C         1.527078         0.285927        -0.225732
 C         0.060298         0.532364        -0.441982
 C         2.363042         1.351535         0.583766
 C         3.611832         0.428338         0.684660
 C         3.045769        -0.935426         0.785904
 O         1.646463        -0.811350         0.734456
 H         5.131648        -1.605611        -0.833271
 H         4.177769        -1.880465        -2.181399
 H         4.970153        -0.234714        -1.983020
 H        -0.444667         0.809017         0.521967
 H        -0.051246         1.355825        -1.263269
 H        -0.503735        -0.311487        -0.852353
 H         2.541167         2.301371        -0.036586
 H         1.894025         1.478241         1.594089
 H         4.539816         0.664329         1.184938
 H         3.475902        -1.769320         1.276826
