19
Iteration:  3110charge 0 multiplicity 1
 O        -2.769461         3.988129         1.547639
 C        -2.002762         2.777914         1.670522
 C        -1.346595         2.029836         0.443248
 C        -0.537041         0.952186         1.202392
 O         0.233573        -0.133454         0.527364
 C        -1.642132         0.368906         2.224842
 C        -1.949857         1.803523         2.880504
 C        -0.809364         2.718489         2.636589
 C         0.255561         1.843132         2.137539
 H        -3.691473         3.722070         1.282818
 H        -2.120889         1.583039        -0.216393
 H        -0.741797         2.683097        -0.177166
 H         0.354622        -0.675245         1.255436
 H        -2.553193        -0.010248         1.692747
 H        -1.380966        -0.417601         2.949790
 H        -2.592339         2.001373         3.760264
 H        -0.551831         3.519080         3.355604
 H         1.182354         2.130945         1.601460
 H         0.736904         1.269182         3.053343
