19
Iteration:  4536charge 0 multiplicity 1
 C         0.059446        -0.074953         0.436797
 C         1.467653         0.050834         0.018072
 C         2.009226        -1.046958        -0.953406
 C         3.140030        -1.417707        -0.002877
 O         3.996117        -2.511139         0.124579
 C         3.790739        -0.054876         0.355171
 O         3.532147         1.163065        -0.403703
 C         2.123532         1.429208        -0.459326
 C         2.544377        -0.444531         1.096349
 H        -0.022208         0.654506         1.293936
 H        -0.600685         0.044417        -0.414901
 H        -0.268443        -1.069032         0.860159
 H         1.225456        -1.818837        -1.124019
 H         2.333988        -0.766744        -1.974082
 H         3.885036        -3.091803        -0.651421
 H         4.820971        -0.105831         0.802323
 H         1.753884         2.191145         0.217581
 H         1.752154         1.714247        -1.548776
 H         2.190503        -0.279935         2.077885
