19
Iteration:  3895
 C        -0.008013         0.064851         0.400932
 C         1.438789        -0.015873         0.018987
 C         1.984635        -1.177814        -0.910918
 C         3.158421        -1.348382         0.029325
 O         4.043141        -2.491317        -0.033766
 C         3.749154         0.021471         0.379768
 O         3.548664         1.144118        -0.398435
 C         2.170924         1.330108        -0.441799
 C         2.513317        -0.461091         1.086008
 H        -0.040897         0.870619         1.096173
 H        -0.683374         0.521723        -0.356469
 H        -0.518563        -0.982175         0.661603
 H         1.383356        -2.091603        -0.930932
 H         2.102603        -0.974493        -2.002185
 H         4.205542        -2.764106         0.870651
 H         4.785775        -0.004367         0.839109
 H         1.963442         2.288143         0.225271
 H         1.935479         1.579443        -1.449201
 H         2.451282        -0.654316         2.162235
