19
Iteration:   587charge 0 multiplicity 1
 C         0.075761        -0.340554        -0.282762
 C         1.329779         0.436760        -0.078751
 C         1.862230         0.748980         1.412436
 C         3.227111         0.744353         0.663237
 O         4.315511         0.221338         1.364202
 C         3.595379         2.189407         0.093154
 O         2.786315         2.370980        -1.070706
 C         2.033079         1.229520        -1.213789
 C         2.730946         0.019589        -0.631370
 H        -0.169201        -0.895294         0.680507
 H        -0.847046         0.214815        -0.646108
 H         0.482889        -1.002201        -1.041069
 H         1.591059         1.684895         1.870540
 H         1.638152        -0.048960         2.154434
 H         4.543301         0.801514         2.108623
 H         3.076965         2.859691         0.805998
 H         4.624915         2.307811        -0.050559
 H         1.597587         1.342585        -2.157129
 H         2.968305        -1.004435        -1.051286
