19
Iteration:  1278charge 0 multiplicity 1
 C         3.689832        -2.642594         0.262900
 C         3.213872        -1.110656         0.165624
 O         2.240829        -0.778478        -0.824851
 C         1.521976         0.135251         0.094014
 C         0.044847        -0.011144         0.245610
 C         2.106033         1.520188        -0.171284
 O         3.514884         1.282774        -0.105482
 C         3.788934         0.140843         0.644228
 C         2.457098        -0.372295         1.191735
 H         3.707289        -2.784133         1.347400
 H         3.071862        -3.404251        -0.388743
 H         4.730564        -2.683584        -0.090402
 H        -0.545880         0.917472        -0.003679
 H        -0.346674        -0.893577        -0.363731
 H        -0.220007        -0.188818         1.309533
 H         1.863777         1.929703        -1.190010
 H         1.818098         2.291546         0.512984
 H         4.616593         0.092634         1.324168
 H         2.389702        -0.664617         2.321937
