19
Iteration:  2575
 O         0.557542        -0.065370         0.637474
 C        -0.775198         0.299386         0.849483
 C        -1.955489         0.862353        -0.024150
 C        -2.430818         0.949527         1.439837
 C        -1.057839         1.522395         1.882919
 C        -3.867955         0.793667         1.937189
 O        -4.313308        -0.567254         1.673152
 C        -3.121548        -1.396575         1.295131
 C        -1.867419        -0.514984         1.734854
 H         0.676769        -0.502439        -0.334717
 H        -1.935874         1.870664        -0.435736
 H        -2.507921         0.146651        -0.570041
 H        -0.872107         2.616447         1.535756
 H        -0.628490         1.318198         2.911416
 H        -3.907552         1.089921         3.010125
 H        -4.524853         1.499798         1.400382
 H        -3.265848        -2.404677         1.732874
 H        -3.161894        -1.673222         0.229485
 H        -1.529153        -0.739282         2.778071
