19
Iteration:  2339
 O         0.310543        -0.275627         0.285127
 C        -0.785251         0.432865         1.005987
 C        -2.038820         0.853931         0.132659
 C        -2.448514         1.006233         1.634345
 C        -0.934569         1.514790         1.968581
 C        -3.939483         0.720670         1.960097
 O        -4.183595        -0.509778         1.283543
 C        -2.971580        -1.360160         1.350080
 C        -1.889373        -0.434830         1.860061
 H         1.196260        -0.090494         0.834106
 H        -1.776045         1.789971        -0.530172
 H        -2.338366        -0.014335        -0.480312
 H        -0.651719         2.561664         1.907916
 H        -0.829891         1.269701         3.175761
 H        -4.149708         0.748375         3.064685
 H        -4.465128         1.466380         1.349528
 H        -3.249050        -2.197417         2.035938
 H        -2.845625        -1.767483         0.328835
 H        -1.504284        -0.713643         2.856934
