19
Iteration:  2940charge 0 multiplicity 1
 O         0.186133        -0.222388         0.030761
 C        -0.831516         0.430701         0.790240
 C        -1.265802         1.956928         0.693941
 C        -2.322869         1.306505         1.760937
 C        -1.089350         0.538663         2.340496
 O        -3.588282         1.736179         2.047940
 C        -4.385944         1.594536         0.781469
 C        -3.621773         0.545966        -0.068406
 C        -2.480459         0.079814         0.747035
 H        -0.056592        -1.181433        -0.192311
 H        -0.608177         2.604799         1.283247
 H        -1.498928         2.401441        -0.314465
 H        -0.405819         1.078794         2.886489
 H        -1.455168        -0.339274         2.908221
 H        -5.437120         1.229122         1.038094
 H        -4.300242         2.590329         0.252183
 H        -4.339071        -0.334839        -0.233031
 H        -3.434051         0.974593        -1.039655
 H        -2.716243        -0.879977         1.239179
