19
Iteration:   271charge 0 multiplicity 1
 O         0.143904        -0.247811         0.106602
 C        -0.925558         0.527969         0.770343
 C        -1.162964         2.033742         0.834405
 C        -2.322900         1.141538         1.643330
 C        -1.186314         0.474820         2.383559
 O        -3.590638         1.628072         2.116516
 C        -4.385950         1.685046         0.903523
 C        -3.603411         0.598624        -0.248483
 C        -2.376076         0.100280         0.513942
 H        -0.046047        -1.084469         0.672889
 H        -0.542819         2.641317         1.504223
 H        -1.442256         2.613793        -0.079050
 H        -0.555622         1.199049         2.884928
 H        -1.356650        -0.515264         2.815371
 H        -5.430793         1.415410         1.132897
 H        -4.436500         2.567628         0.323126
 H        -4.155237        -0.238088        -0.712175
 H        -3.363702         1.248943        -1.077862
 H        -2.625653        -0.882936         0.991760
