19
Iteration:  4460
 C         0.044753        -0.567442         0.466416
 C         1.518281        -0.144364         0.239978
 C         1.952314         0.929868        -0.658173
 C         3.403160         0.526356        -0.160417
 C         4.260832         0.109130        -1.294907
 O         3.167018        -1.061196        -1.653891
 C         2.834233        -0.919164        -0.133623
 C         3.416240         0.891000         1.258093
 O         2.137340         0.154176         1.632215
 H        -0.315996        -1.263745        -0.233317
 H        -0.087071        -0.899261         1.508630
 H        -0.517368         0.270118         0.209635
 H         1.800002         0.392032        -1.883301
 H         1.532858         1.951074        -0.540304
 H         4.472915         0.889119        -2.118042
 H         5.259266        -0.379742        -0.976677
 H         3.335012        -1.657878         0.315174
 H         4.360805         0.464038         1.575183
 H         3.283876         2.010313         1.438163
