19
Iteration:  1466
 O         0.386682        -0.218411         0.358665
 C        -0.603913         0.664272         0.151333
 C        -2.188650         0.416235         0.367367
 C        -2.122357         2.126230         0.321143
 C        -1.910428         2.458651        -1.082079
 C        -0.541439         1.374026        -1.172016
 O        -2.811702         2.913391         1.291145
 C        -1.704556         2.436762         2.224620
 C        -0.829493         2.015189         0.977563
 H         0.216833        -1.129401         0.079211
 H        -2.845820         0.057352        -0.439332
 H        -2.361058         0.011706         1.382421
 H        -2.677575         2.251886        -1.808314
 H        -1.562504         3.601295        -1.248616
 H        -0.749800         0.565954        -1.867021
 H         0.496457         1.846941        -1.404775
 H        -1.437108         3.132366         3.154732
 H        -2.074201         1.580604         2.711514
 H         0.028199         2.720199         0.725648
