19
Iteration:  4504charge 0 multiplicity 1
 C         0.035472        -0.445988         0.215987
 C         1.528964        -0.210677         0.040038
 C         2.570349        -0.326116         1.063955
 C         3.161091         0.844719         0.226886
 C         4.598100         1.275586         0.077579
 O         4.786027         0.060539        -0.779170
 C         3.361224         0.308141        -1.203864
 C         2.125478        -0.648592        -1.327115
 O         1.684549         1.282177         0.139625
 H        -0.512893        -0.526796         1.161992
 H        -0.565236        -0.018456        -0.558457
 H        -0.133180        -1.437008        -0.081874
 H         2.414707         0.024271         2.091412
 H         3.191920        -1.163630         1.317304
 H         4.906291         2.217107        -0.487460
 H         5.142979         1.314694         0.985158
 H         3.139321         1.169617        -1.859144
 H         1.399254        -0.388692        -2.134032
 H         2.250161        -1.762229        -1.149046
