19
Iteration:  4008
 O         0.808269         0.754004         0.103936
 C        -0.229644         0.978051         1.087301
 C        -1.699839         0.856354         0.546302
 C        -1.885971         1.630664         1.825361
 C        -0.676563         2.442813         1.503325
 O        -2.943791         2.233920         2.657297
 C        -2.346901         1.677343         3.834141
 C        -1.578745         0.613415         2.943264
 C        -0.197143         0.219783         2.472470
 H         0.783871         1.370547        -0.581673
 H        -1.757719         1.590868        -0.356996
 H        -2.098625        -0.119800         0.488967
 H        -0.836155         3.105561         0.692793
 H        -0.197975         2.988126         2.387371
 H        -1.886932         2.587155         4.554372
 H        -3.074339         1.259880         4.484092
 H        -2.217498        -0.282924         2.765223
 H         0.511759         0.714167         3.139884
 H         0.260710        -0.829305         2.500256
