19
Iteration:   677
 C        -0.174372         0.166021         0.453516
 C         1.450261         0.077819         0.053831
 C         2.012569         0.748602        -1.197960
 C         3.338876        -0.085660        -1.165971
 C         2.857659        -1.510455        -1.475837
 C         2.143887        -1.358968        -0.146434
 O         1.526020        -2.414763         0.585195
 C         3.279727        -0.540314         0.328574
 O         2.389983         0.439182         1.109643
 H        -0.638358        -0.396745         1.319454
 H        -0.318702         1.351004         0.619869
 H        -0.671174        -0.043402        -0.530610
 H         1.349570         0.481537        -2.190053
 H         2.098259         1.873380        -1.143052
 H         4.290587         0.304650        -1.648590
 H         2.416994        -1.960779        -2.436742
 H         3.828982        -2.052521        -1.143715
 H         1.833917        -3.213554         0.189369
 H         4.183621        -0.858091         0.996394
