19
Iteration:   897
 C        -0.043515         0.063750         0.070369
 C         1.396048         0.340904        -0.098266
 O         2.223071         0.154955         1.194285
 C         3.166500         0.498854         0.148357
 C         2.494461        -0.347611        -0.994988
 C         2.484195         0.412866        -2.300775
 C         2.409854         1.973297        -1.849845
 C         2.287539         1.698274        -0.354345
 O         2.008157         2.849304         0.398907
 H        -0.577768         0.737766         0.810450
 H        -0.596319         0.116605        -0.908881
 H        -0.019043        -0.999899         0.537676
 H         4.182922         0.677666         0.463652
 H         2.653907        -1.478715        -0.894574
 H         3.380648         0.455593        -2.831777
 H         1.622141         0.163187        -2.990637
 H         3.353078         2.475617        -2.280393
 H         1.415531         2.456693        -2.233865
 H         2.426719         2.786531         1.259793
