19
Iteration:  3055charge 0 multiplicity 1
 O         0.664972         0.289920         0.096721
 C        -0.524457         0.388205         0.725260
 C        -1.845075        -0.017189         0.003470
 C        -2.464403         0.977974         1.044983
 C        -1.168896         1.748174         0.907555
 C        -1.169622         2.593553         2.195435
 O        -1.963561         1.779382         3.172574
 C        -2.163515         0.514255         2.506714
 C        -0.720854        -0.252316         2.169947
 H         0.704054        -0.507488        -0.549761
 H        -1.866125         0.436123        -1.016139
 H        -2.151868        -1.104315        -0.014342
 H        -3.407656         1.532657         0.811683
 H        -1.089718         2.280265         0.044450
 H        -0.343149         2.959614         2.756480
 H        -1.792108         3.565399         1.946997
 H        -2.879605        -0.001662         3.240967
 H         0.060163         0.193878         2.876222
 H        -0.668290        -1.384262         1.971890
