19
Iteration:  1308charge 0 multiplicity 1
 C        -0.021762         0.131681         0.344868
 C         1.315208        -0.146999        -0.157922
 C         1.662763        -1.493162        -0.754541
 C         3.075063        -1.046856        -1.155264
 C         3.569864        -0.167172         0.186451
 C         3.969330         0.982136        -0.740313
 C         2.941163         0.455967        -1.767241
 O         1.630219         0.771427        -1.226484
 O         2.347371         0.101297         0.827938
 H        -0.383522        -0.748987         0.904864
 H        -0.222826         1.100615         0.784220
 H        -0.665291         0.225070        -0.634980
 H         1.694669        -2.292739         0.014263
 H         1.009500        -1.750534        -1.650786
 H         3.702299        -1.742207        -1.679833
 H         4.268041        -0.534089         0.975510
 H         3.618083         1.972932        -0.569810
 H         5.022627         0.709384        -0.826558
 H         2.787961         0.771747        -2.872714
