19
Iteration:  4664
 C        -0.025290         0.146519         0.181331
 C         1.322785        -0.122285        -0.248592
 C         1.676631        -1.497293        -0.677089
 C         3.209728        -1.072191        -0.984777
 C         3.518730        -0.081857         0.183994
 C         3.973654         1.024113        -0.757069
 C         2.890873         0.328092        -1.740432
 O         1.635365         0.747572        -1.275615
 O         2.255763         0.121225         0.850187
 H        -0.448589        -0.620885         0.860598
 H        -0.067463         1.146071         0.691557
 H        -0.809284         0.120975        -0.637250
 H         1.639875        -2.231816         0.094516
 H         1.227577        -1.905117        -1.555044
 H         3.992026        -1.844313        -1.161688
 H         4.291391        -0.483367         0.894370
 H         3.777300         2.058776        -0.359586
 H         5.032488         0.848394        -1.073782
 H         2.907528         0.571553        -2.898646
