19
Iteration:  3866
 C        -0.037294         0.016878         0.062034
 C         1.414880         0.094889         0.013455
 C         2.183881         1.033466        -0.928896
 C         3.560165         0.960115        -0.353685
 C         4.338136        -0.290501        -0.901914
 C         3.416819        -1.153859         0.065820
 O         1.996124        -1.199485        -0.351959
 C         3.291013         0.178202         0.985152
 O         1.996002         0.393673         1.288111
 H        -0.314420        -0.588168         0.864301
 H        -0.440950         0.992650         0.305662
 H        -0.316395        -0.431269        -0.918382
 H         2.038232         0.586286        -1.937091
 H         1.587144         2.095172        -0.895320
 H         4.021612         1.947936        -0.321534
 H         4.429246        -0.381133        -1.938963
 H         5.326922        -0.600826        -0.505107
 H         3.697090        -2.196363         0.197231
 H         3.808290         0.228254         1.949122
