19
Iteration:  3155
 C        -0.070171         0.112856         0.012286
 C         1.457495         0.052977        -0.029469
 C         2.206044         1.098627        -0.909173
 C         3.589033         1.020646        -0.327404
 C         4.257468        -0.276294        -0.924305
 C         3.462900        -1.158419         0.107148
 O         2.001615        -1.302583        -0.352599
 C         3.304013         0.131906         1.038055
 O         1.940745         0.348309         1.269335
 H        -0.427878        -0.432859         0.848974
 H        -0.392217         1.119884         0.261181
 H        -0.452726        -0.372137        -0.874330
 H         2.260495         0.796601        -1.959219
 H         1.609816         2.059817        -0.718826
 H         4.263486         1.836591        -0.226271
 H         4.169596        -0.409170        -1.954998
 H         5.282717        -0.469141        -0.691827
 H         3.782577        -2.119789         0.333498
 H         4.063989         0.294040         1.789979
