19
Iteration:   673
 C        -0.035931         0.634411        -0.415055
 C         1.383431         0.044607         0.017642
 C         1.910285        -1.409710         0.565627
 C         2.654482        -0.668568         1.794590
 C         2.513816         0.509655         0.918253
 O         2.757263         1.816498         1.286664
 C         2.777650         0.063958        -0.569135
 O         3.582666         0.994684        -1.381790
 C         2.904475        -1.472419        -0.583276
 H        -0.135093         0.713800        -1.483579
 H        -0.776645        -0.010912        -0.025774
 H        -0.281023         1.622051         0.145396
 H         1.297274        -2.389522         0.886930
 H         1.831535        -0.567747         2.491281
 H         3.625160        -0.879063         2.222319
 H         3.450005         2.254750         0.648314
 H         3.196078         0.990117        -2.258006
 H         2.531940        -1.914161        -1.504188
 H         3.851103        -1.900202        -0.233108
