19
Iteration:  2339charge 0 multiplicity 1
 C         0.026835         0.602118        -0.235591
 C         1.387150         0.173580         0.123945
 C         1.791209        -1.140975         0.923897
 C         2.681659        -0.308273         1.875236
 C         2.676306         0.674796         0.752502
 O         3.161126         2.002186         0.804339
 C         2.640740        -0.197140        -0.624489
 O         3.293601         0.489466        -1.662078
 C         2.764057        -1.665030        -0.227202
 H        -0.072830         1.555749         0.262336
 H        -0.186197         0.683588        -1.272405
 H        -0.744510        -0.022212         0.164360
 H         1.184274        -1.982604         1.417781
 H         2.050791        -0.036992         2.805675
 H         3.706644        -0.623564         2.343622
 H         3.771688         2.130998         0.125649
 H         2.632056         0.491626        -2.459511
 H         2.419385        -2.547429        -0.831694
 H         3.678062        -1.867062         0.195314
