19
Iteration:  3983
 C        -0.201293        -0.227106         0.403860
 C         1.342287        -0.016438         0.011993
 C         2.201057        -0.433931        -1.185651
 C         3.306572         0.441464        -0.584912
 C         3.823737        -0.250512         0.685520
 C         2.399270         0.115583         1.218084
 O         1.964571        -0.073708         2.527661
 C         2.186113         1.198728         0.234098
 O         1.922163         2.531117         0.157389
 H        -0.805613         0.694897         0.290154
 H        -0.676764        -0.982308        -0.227580
 H        -0.228724        -0.630533         1.424053
 H         2.231394        -1.501498        -1.399136
 H         1.788421         0.083267        -2.067129
 H         3.999620         1.110568        -1.148604
 H         4.017601        -1.330792         0.494990
 H         4.680113         0.134584         1.276352
 H         2.196706        -0.998581         2.681221
 H         2.118598         3.128411         0.898317
