19
Iteration:  2143
 C        -1.087655         0.737981         2.531277
 C         0.255656         0.982947         1.739148
 C         0.950371         2.298659         1.444715
 C         2.177105         1.507468         1.161390
 O         1.809365         0.766957        -0.039662
 C         0.903316        -0.001525         0.714678
 C         0.424947        -1.212059         0.137016
 C         1.632085         0.262235         1.967663
 O         1.831113        -0.647406         3.017538
 H        -2.017532         1.336296         2.123725
 H        -1.373885        -0.284081         2.219983
 H        -1.070401         0.851622         3.635820
 H         0.636785         2.904805         0.571462
 H         1.192443         2.784056         2.412963
 H         3.266403         1.850482         0.928869
 H         0.206376        -1.968792         0.900884
 H        -0.362437        -0.970542        -0.521411
 H         1.275831        -1.741461        -0.444789
 H         1.482902        -0.342586         3.881087
